# vtk DataFile Version 3.0
vtk output
ASCII
DATASET UNSTRUCTURED_GRID
POINTS 14290 float
1.187967e-03	-2.321629e-02	0.0	1.093918e-03	-2.268314e-02	0.0	9.947277e-04	-2.211164e-02	0.0	8.895287e-04	-2.149912e-02	0.0	7.770064e-04	-2.084271e-02	0.0	6.551921e-04	-2.013935e-02	0.0	5.211815e-04	-1.938567e-02	0.0	3.707371e-04	-1.857789e-02	0.0	1.977927e-04	-1.771159e-02	0.0	-6.171566e-06	-1.678122e-02	0.0	-2.529308e-04	-1.577942e-02	0.0	-5.584763e-04	-1.469571e-02	0.0	-9.444267e-04	-1.351493e-02	0.0	-1.439070e-03	-1.221369e-02	0.0	-2.078828e-03	-1.075581e-02	0.0	-2.909184e-03	-9.085785e-03	0.0	-3.983774e-03	-7.121638e-03	0.0	-5.360389e-03	-4.749993e-03	0.0	-7.095561e-03	-1.825496e-03	0.0	-9.241566e-03	1.828613e-03	0.0	-1.184718e-02	6.424082e-03	0.0	-1.496035e-02	1.221681e-02	0.0	-1.863119e-02	1.951998e-02	0.0	-2.291510e-02	2.872033e-02	0.0	-2.787665e-02	4.029798e-02	0.0	-3.359484e-02	5.485086e-02	0.0	-4.017107e-02	7.312405e-02	0.0	-4.774128e-02	9.604506e-02	0.0	-5.649775e-02	1.247675e-01	0.0	-6.672784e-02	1.607351e-01	0.0	-7.889487e-02	2.057868e-01	0.0	-9.384109e-02	2.623120e-01	0.0	-1.132726e-01	3.334429e-01	0.0	-1.404541e-01	4.231102e-01	0.0	-1.797426e-01	5.357754e-01	0.0	-2.352112e-01	6.766411e-01	0.0	-3.119268e-01	8.530730e-01	0.0	-4.168730e-01	1.075910e+00	0.0	-5.536899e-01	1.364827e+00	0.0	-7.335403e-01	1.741545e+00	0.0	-9.758093e-01	2.228146e+00	0.0	-1.287904e+00	2.859087e+00	0.0	-1.695372e+00	3.703725e+00	0.0	-2.277369e+00	4.819407e+00	0.0	-3.133543e+00	6.295785e+00	0.0	-4.332019e+00	8.261441e+00	0.0	-6.202704e+00	1.089058e+01	0.0	-8.879765e+00	1.413572e+01	0.0	-1.288809e+01	1.838434e+01	0.0	-1.871137e+01	2.251594e+01	0.0	-2.830763e+01	2.785483e+01	0.0	-2.865430e+01	2.744004e+01	0.0	-1.904630e+01	2.220081e+01	0.0	-1.318546e+01	1.814322e+01	0.0	-9.115768e+00	1.395865e+01	0.0	-6.397903e+00	1.074891e+01	0.0	-4.486821e+00	8.155560e+00	0.0	-3.257887e+00	6.214926e+00	0.0	-2.376400e+00	4.758793e+00	0.0	-1.773881e+00	3.655104e+00	0.0	-1.350425e+00	2.819870e+00	0.0	-1.026995e+00	2.197107e+00	0.0	-7.756699e-01	1.716623e+00	0.0	-5.883190e-01	1.344481e+00	0.0	-4.456928e-01	1.059092e+00	0.0	-3.360846e-01	8.393088e-01	0.0	-2.554797e-01	6.653292e-01	0.0	-1.968192e-01	5.263328e-01	0.0	-1.547576e-01	4.151169e-01	0.0	-1.250925e-01	3.265830e-01	0.0	-1.035045e-01	2.563480e-01	0.0	-8.674761e-02	2.005543e-01	0.0	-7.308466e-02	1.561140e-01	0.0	-6.162661e-02	1.206642e-01	0.0	-5.186596e-02	9.238499e-02	0.0	-4.347747e-02	6.984730e-02	0.0	-3.623715e-02	5.190758e-02	0.0	-2.998217e-02	3.764488e-02	0.0	-2.458856e-02	2.631840e-02	0.0	-1.995789e-02	1.733308e-02	0.0	-1.600893e-02	1.021110e-02	0.0	-1.267165e-02	4.568200e-03	0.0	-9.883378e-03	9.460240e-05	0.0	-7.585806e-03	-3.460411e-03	0.0	-5.722769e-03	-6.301250e-03	0.0	-4.238062e-03	-8.596174e-03	0.0	-3.073921e-03	-1.048366e-02	0.0	-2.171934e-03	-1.207434e-02	0.0	-1.476827e-03	-1.345124e-02	0.0	-9.404646e-04	-1.467235e-02	0.0	-5.236062e-04	-1.577586e-02	0.0	-1.955726e-04	-1.678634e-02	0.0	6.718017e-05	-1.771936e-02	0.0	2.821377e-04	-1.858550e-02	0.0	4.622453e-04	-1.939198e-02	0.0	6.169435e-04	-2.014412e-02	0.0	7.529971e-04	-2.084605e-02	0.0	8.751772e-04	-2.150128e-02	0.0	9.868127e-04	-2.211292e-02	0.0	1.090198e-03	-2.268378e-02	0.0	1.186901e-03	-2.321648e-02	0.0	1.094986e-03	-2.268296e-02	0.0	1.284524e-03	-2.374899e-02	0.0	9.983036e-04	-2.211106e-02	0.0	8.970652e-04	-2.149796e-02	0.0	7.906146e-04	-2.084077e-02	0.0	6.779055e-04	-2.013640e-02	0.0	5.573136e-04	-1.938150e-02	0.0	4.263576e-04	-1.857246e-02	0.0	2.813528e-04	-1.770520e-02	0.0	1.169596e-04	-1.677501e-02	0.0	-7.441793e-05	-1.577608e-02	0.0	-3.033789e-04	-1.470087e-02	0.0	-5.844268e-04	-1.353891e-02	0.0	-9.372930e-04	-1.227539e-02	0.0	-1.387908e-03	-1.088788e-02	0.0	-1.969883e-03	-9.342227e-03	0.0	-2.725759e-03	-7.585958e-03	0.0	-3.706679e-03	-5.539821e-03	0.0	-4.968960e-03	-3.090221e-03	0.0	-6.567977e-03	-8.654573e-05	0.0	-8.552910e-03	3.656945e-03	0.0	-1.096584e-02	8.360923e-03	0.0	-1.384468e-02	1.428770e-02	0.0	-1.722695e-02	2.175434e-02	0.0	-2.115353e-02	3.114994e-02	0.0	-2.567232e-02	4.295652e-02	0.0	-3.084313e-02	5.777446e-02	0.0	-3.674472e-02	7.635251e-02	0.0	-4.348631e-02	9.962390e-02	0.0	-5.122814e-02	1.287507e-01	0.0	-6.021947e-02	1.651892e-01	0.0	-7.087825e-02	2.107968e-01	0.0	-8.400014e-02	2.679906e-01	0.0	-1.012618e-01	3.399522e-01	0.0	-1.259521e-01	4.306858e-01	0.0	-1.624624e-01	5.447254e-01	0.0	-2.147233e-01	6.873602e-01	0.0	-2.875434e-01	8.661349e-01	0.0	-3.878528e-01	1.091917e+00	0.0	-5.187847e-01	1.384254e+00	0.0	-6.910604e-01	1.765420e+00	0.0	-9.243390e-01	2.257904e+00	0.0	-1.224854e+00	2.896694e+00	0.0	-1.616131e+00	3.750598e+00	0.0	-2.177532e+00	4.877706e+00	0.0	-3.008162e+00	6.373934e+00	0.0	-4.175699e+00	8.364280e+00	0.0	-6.005948e+00	1.102898e+01	0.0	-8.642377e+00	1.430885e+01	0.0	-1.258852e+01	1.862189e+01	0.0	-1.837180e+01	2.282237e+01	0.0	-2.795784e+01	2.826338e+01	0.0	-2.899765e+01	2.701841e+01	0.0	-1.938129e+01	2.188514e+01	0.0	-1.347921e+01	1.789069e+01	0.0	-9.352322e+00	1.377634e+01	0.0	-6.590518e+00	1.060104e+01	0.0	-4.641668e+00	8.045538e+00	0.0	-3.381153e+00	6.131030e+00	0.0	-2.474619e+00	4.695291e+00	0.0	-1.852261e+00	3.604119e+00	0.0	-1.412621e+00	2.779062e+00	0.0	-1.077816e+00	2.164630e+00	0.0	-8.175272e-01	1.690385e+00	0.0	-6.226980e-01	1.323086e+00	0.0	-4.742274e-01	1.041506e+00	0.0	-3.600523e-01	8.249192e-01	0.0	-2.755686e-01	6.534651e-01	0.0	-2.136755e-01	5.163809e-01	0.0	-1.688412e-01	4.066789e-01	0.0	-1.367156e-01	3.193609e-01	0.0	-1.129887e-01	2.501008e-01	0.0	-9.443449e-02	1.951018e-01	0.0	-7.928755e-02	1.513237e-01	0.0	-6.661378e-02	1.164350e-01	0.0	-5.586098e-02	8.863753e-02	0.0	-4.666615e-02	6.651695e-02	0.0	-3.877346e-02	4.893957e-02	0.0	-3.199336e-02	3.499155e-02	0.0	-2.617907e-02	2.393704e-02	0.0	-2.121275e-02	1.518467e-02	0.0	-1.699626e-02	8.259599e-03	0.0	-1.344505e-02	2.780514e-03	0.0	-1.048383e-02	-1.558936e-03	0.0	-8.043925e-03	-5.004962e-03	0.0	-6.061311e-03	-7.755931e-03	0.0	-4.475073e-03	-9.972712e-03	0.0	-3.225746e-03	-1.178658e-02	0.0	-2.254720e-03	-1.330356e-02	0.0	-1.505981e-03	-1.460580e-02	0.0	-9.293629e-04	-1.575266e-02	0.0	-4.830436e-04	-1.678421e-02	0.0	-1.339308e-04	-1.772622e-02	0.0	1.434928e-04	-1.859486e-02	0.0	3.682399e-04	-1.940085e-02	0.0	5.544526e-04	-2.015135e-02	0.0	7.124791e-04	-2.085144e-02	0.0	8.497783e-04	-2.150502e-02	0.0	9.716645e-04	-2.211532e-02	0.0	1.081878e-03	-2.268518e-02	0.0	1.183106e-03	-2.321716e-02	0.0	1.283459e-03	-2.374919e-02	0.0	9.993726e-04	-2.211089e-02	0.0	1.391906e-03	-2.431897e-02	0.0	9.005069e-04	-2.149743e-02	0.0	7.977980e-04	-2.083974e-02	0.0	6.908204e-04	-2.013468e-02	0.0	5.788180e-04	-1.937891e-02	0.0	4.605143e-04	-1.856886e-02	0.0	3.338799e-04	-1.770061e-02	0.0	1.958192e-04	-1.676980e-02	0.0	4.174023e-05	-1.577140e-02	0.0	-1.350034e-04	-1.469933e-02	0.0	-3.438077e-04	-1.354582e-02	0.0	-5.976825e-04	-1.230040e-02	0.0	-9.144600e-04	-1.094843e-02	0.0	-1.317777e-03	-9.468406e-03	0.0	-1.838624e-03	-7.828020e-03	0.0	-2.516496e-03	-5.977889e-03	0.0	-3.399353e-03	-3.842630e-03	0.0	-4.541126e-03	-1.311073e-03	0.0	-5.995717e-03	1.769856e-03	0.0	-7.809853e-03	5.594114e-03	0.0	-1.001987e-02	1.039274e-02	0.0	-1.265410e-02	1.643637e-02	0.0	-1.573768e-02	2.404707e-02	0.0	-1.929690e-02	3.361652e-02	0.0	-2.336317e-02	4.562834e-02	0.0	-2.797714e-02	6.068465e-02	0.0	-3.319510e-02	7.953712e-02	0.0	-3.909947e-02	1.031236e-01	0.0	-4.581836e-02	1.326141e-01	0.0	-5.356215e-02	1.694775e-01	0.0	-6.270373e-02	2.155896e-01	0.0	-7.399195e-02	2.733951e-01	0.0	-8.907682e-02	3.461196e-01	0.0	-1.112667e-01	4.378370e-01	0.0	-1.449873e-01	5.531604e-01	0.0	-1.940596e-01	6.974979e-01	0.0	-2.630340e-01	8.785660e-01	0.0	-3.586404e-01	1.107230e+00	0.0	-4.836374e-01	1.402789e+00	0.0	-6.483954e-01	1.788106e+00	0.0	-8.726684e-01	2.286121e+00	0.0	-1.161385e+00	2.932703e+00	0.0	-1.536793e+00	3.795398e+00	0.0	-2.077588e+00	4.933012e+00	0.0	-2.881597e+00	6.448737e+00	0.0	-4.019749e+00	8.463772e+00	0.0	-5.807455e+00	1.116093e+01	0.0	-8.405975e+00	1.447783e+01	0.0	-1.228623e+01	1.884649e+01	0.0	-1.803201e+01	2.312166e+01	0.0	-2.760500e+01	2.866514e+01	0.0	-2.933762e+01	2.659049e+01	0.0	-1.971367e+01	2.156015e+01	0.0	-1.377057e+01	1.763108e+01	0.0	-9.588182e+00	1.358765e+01	0.0	-6.781661e+00	1.044845e+01	0.0	-4.795400e+00	7.931587e+00	0.0	-3.503498e+00	6.043912e+00	0.0	-2.572205e+00	4.628973e+00	0.0	-1.930113e+00	3.551063e+00	0.0	-1.474328e+00	2.736539e+00	0.0	-1.128312e+00	2.130698e+00	0.0	-8.590043e-01	1.662967e+00	0.0	-6.567485e-01	1.300742e+00	0.0	-5.025126e-01	1.023145e+00	0.0	-3.837837e-01	8.098563e-01	0.0	-2.954252e-01	6.410026e-01	0.0	-2.303007e-01	5.059146e-01	0.0	-1.827004e-01	3.978073e-01	0.0	-1.481297e-01	3.117828e-01	0.0	-1.222820e-01	2.435673e-01	0.0	-1.019474e-01	1.894238e-01	0.0	-8.533218e-02	1.463606e-01	0.0	-7.145705e-02	1.120782e-01	0.0	-5.972592e-02	8.480116e-02	0.0	-4.973804e-02	6.313029e-02	0.0	-4.120603e-02	4.594271e-02	0.0	-3.391339e-02	3.233236e-02	0.0	-2.769058e-02	2.156915e-02	0.0	-2.240003e-02	1.306612e-02	0.0	-1.792676e-02	6.352139e-03	0.0	-1.417157e-02	1.049357e-03	0.0	-1.104678e-02	-3.144860e-03	0.0	-8.473328e-03	-6.472412e-03	0.0	-6.379247e-03	-9.126445e-03	0.0	-4.698331e-03	-1.126158e-02	0.0	-3.368709e-03	-1.300244e-02	0.0	-2.331461e-03	-1.444962e-02	0.0	-1.530483e-03	-1.568257e-02	0.0	-9.144864e-04	-1.676069e-02	0.0	-4.395333e-04	-1.772530e-02	0.0	-7.022843e-05	-1.860341e-02	0.0	2.209628e-04	-1.941181e-02	0.0	4.546448e-04	-2.016152e-02	0.0	6.461746e-04	-2.085964e-02	0.0	8.068261e-04	-2.151107e-02	0.0	9.447773e-04	-2.211949e-02	0.0	1.065878e-03	-2.268785e-02	0.0	1.174576e-03	-2.321867e-02	0.0	1.279750e-03	-2.374987e-02	0.0	1.390843e-03	-2.431918e-02	0.0	9.015772e-04	-2.149727e-02	0.0	1.511419e-03	-2.492874e-02	0.0	8.011146e-04	-2.083925e-02	0.0	6.976747e-04	-2.013375e-02	0.0	5.910862e-04	-1.937740e-02	0.0	4.808901e-04	-1.856662e-02	0.0	3.661927e-04	-1.769756e-02	0.0	2.454581e-04	-1.676602e-02	0.0	1.162126e-04	-1.576733e-02	0.0	-2.535083e-05	-1.469615e-02	0.0	-1.848859e-04	-1.354610e-02	0.0	-3.705543e-04	-1.230918e-02	0.0	-5.938214e-04	-1.097482
[...]
POINT_DATA 14290

SCALARS Conservative_1 float 1
LOOKUP_TABLE default
-9.753288e-01	-8.159230e-01	-7.692002e-01	-7.666014e-01	-7.665289e-01	-7.685752e-01	-7.720207e-01	-7.768004e-01	-7.831752e-01	-7.911136e-01	-8.008910e-01	-8.127710e-01	-8.268198e-01	-8.419170e-01	-8.565465e-01	-8.715265e-01	-8.890894e-01	-9.099903e-01	-9.323887e-01	-9.507219e-01	-9.562412e-01	-9.386754e-01	-8.890822e-01	-8.037140e-01	-6.858982e-01	-5.438321e-01	-3.887109e-01	-2.363099e-01	-1.073480e-01	-2.091896e-02	1.714682e-02	1.994247e-02	1.140651e-02	1.403019e-02	2.721432e-02	4.305071e-02	5.761722e-02	6.758646e-02	7.246482e-02	7.003858e-02	5.961705e-02	4.553709e-02	3.307158e-02	2.540251e-02	2.165993e-02	2.042309e-02	1.757636e-02	1.393290e-02	9.746744e-03	4.963518e-03	2.539987e-04	1.496726e-04	4.281003e-03	8.441268e-03	1.192667e-02	1.473558e-02	1.679796e-02	1.781865e-02	2.175791e-02	2.983987e-02	4.206129e-02	5.469615e-02	6.325704e-02	6.413272e-02	5.802014e-02	4.720007e-02	3.248336e-02	1.713195e-02	4.805225e-03	2.528446e-03	8.126474e-03	-1.449596e-03	-4.840089e-02	-1.424511e-01	-2.748982e-01	-4.257173e-01	-5.748236e-01	-7.075144e-01	-8.137009e-01	-8.867926e-01	-9.256288e-01	-9.357020e-01	-9.265009e-01	-9.077226e-01	-8.868627e-01	-8.681535e-01	-8.526200e-01	-8.392184e-01	-8.259468e-01	-8.125657e-01	-8.006593e-01	-7.909021e-01	-7.830451e-01	-7.767066e-01	-7.718558e-01	-7.681597e-01	-7.655824e-01	-7.639876e-01	-7.645527e-01	-7.675996e-01	-8.157997e-01	-9.764872e-01	-9.753399e-01	-8.176822e-01	-7.715387e-01	-7.691184e-01	-7.694737e-01	-7.724727e-01	-7.770311e-01	-7.834090e-01	-7.914337e-01	-8.013498e-01	-8.133123e-01	-8.275975e-01	-8.439988e-01	-8.610354e-01	-8.774046e-01	-8.942842e-01	-9.139625e-01	-9.366710e-01	-9.596165e-01	-9.758564e-01	-9.755932e-01	-9.484164e-01	-8.864374e-01	-7.880000e-01	-6.585992e-01	-5.077992e-01	-3.477000e-01	-1.950135e-01	-7.086371e-02	6.956847e-03	3.579494e-02	3.208322e-02	2.115451e-02	2.455537e-02	3.870417e-02	5.495174e-02	6.920080e-02	7.812771e-02	8.166176e-02	7.760549e-02	6.527390e-02	4.994950e-02	3.756067e-02	3.027651e-02	2.643584e-02	2.456555e-02	2.065742e-02	1.606392e-02	1.115690e-02	5.756594e-03	4.419747e-04	1.052062e-04	3.706100e-03	7.275636e-03	1.013344e-02	1.227965e-02	1.382431e-02	1.495528e-02	1.920747e-02	2.752251e-02	3.914901e-02	5.023022e-02	5.702040e-02	5.646736e-02	4.927542e-02	3.777050e-02	2.305290e-02	8.241500e-03	-3.339431e-03	-5.672523e-03	-3.482982e-03	-2.000255e-02	-7.540872e-02	-1.760831e-01	-3.107597e-01	-4.588343e-01	-6.010771e-01	-7.239934e-01	-8.187717e-01	-8.805717e-01	-9.102794e-01	-9.147392e-01	-9.035490e-01	-8.855376e-01	-8.668713e-01	-8.505539e-01	-8.369133e-01	-8.247987e-01	-8.126507e-01	-8.008459e-01	-7.909038e-01	-7.830431e-01	-7.767556e-01	-7.718685e-01	-7.680516e-01	-7.651905e-01	-7.629944e-01	-7.617506e-01	-7.631952e-01	-7.676762e-01	-8.165622e-01	-9.791757e-01	-9.755499e-01	-8.202108e-01	-7.742945e-01	-7.720681e-01	-7.733369e-01	-7.775317e-01	-7.837410e-01	-7.918185e-01	-8.018922e-01	-8.140533e-01	-8.285352e-01	-8.455246e-01	-8.645382e-01	-8.838892e-01	-9.024387e-01	-9.215138e-01	-9.432823e-01	-9.671438e-01	-9.892093e-01	-1.001189e+00	-9.926266e-01	-9.535563e-01	-8.776746e-01	-7.656690e-01	-6.250569e-01	-4.664434e-01	-3.026214e-01	-1.511004e-01	-3.315211e-02	3.512232e-02	5.451211e-02	4.469800e-02	3.201977e-02	3.667418e-02	5.189373e-02	6.845293e-02	8.219525e-02	8.992072e-02	9.200621e-02	8.626501e-02	7.204191e-02	5.566727e-02	4.340146e-02	3.617989e-02	3.184156e-02	2.884731e-02	2.370327e-02	1.814552e-02	1.257588e-02	6.645087e-03	7.381478e-04	1.006801e-04	3.225819e-03	6.275830e-03	8.605951e-03	1.026792e-02	1.154229e-02	1.294277e-02	1.749276e-02	2.579066e-02	3.653640e-02	4.605058e-02	5.121838e-02	4.936973e-02	4.123035e-02	2.922133e-02	1.463793e-02	3.891438e-04	-1.057368e-02	-1.334867e-02	-1.497770e-02	-3.852005e-02	-1.018837e-01	-2.081719e-01	-3.438878e-01	-4.881947e-01	-6.229143e-01	-7.358725e-01	-8.196654e-01	-8.712605e-01	-8.933872e-01	-8.938470e-01	-8.819947e-01	-8.656121e-01	-8.495460e-01	-8.356794e-01	-8.237881e-01	-8.127639e-01	-8.016202e-01	-7.913224e-01	-7.832193e-01	-7.769563e-01	-7.720676e-01	-7.681634e-01	-7.651290e-01	-7.626217e-01	-7.607703e-01	-7.602049e-01	-7.633943e-01	-7.686662e-01	-8.170207e-01	-9.823186e-01	-9.756301e-01	-8.232211e-01	-7.775228e-01	-7.759682e-01	-7.783751e-01	-7.843300e-01	-7.922688e-01	-8.024651e-01	-8.148466e-01	-8.296050e-01	-8.469500e-01	-8.669793e-01	-8.890002e-01	-9.111128e-01	-9.322584e-01	-9.537497e-01	-9.773277e-01	-1.001297e+00	-1.020480e+00	-1.025464e+00	-1.005724e+00	-9.524547e-01	-8.614277e-01	-7.357767e-01	-5.847292e-01	-4.195364e-01	-2.534721e-01	-1.047075e-01	5.612060e-03	6.347502e-02	7.334864e-02	5.800716e-02	4.434975e-02	5.078901e-02	6.718355e-02	8.392826e-02	9.696278e-02	1.033123e-01	1.038882e-01	9.646500e-02	8.032623e-02	6.287859e-02	5.034320e-02	4.257501e-02	3.728536e-02	3.277484e-02	2.636410e-02	1.997056e-02	1.388919e-02	7.601422e-03	1.162968e-03	1.226492e-04	2.829699e-03	5.435853e-03	7.346840e-03	8.683731e-03	9.857655e-03	1.157395e-02	1.631960e-02	2.435014e-02	3.405649e-02	4.207452e-02	4.577379e-02	4.276684e-02	3.383214e-02	2.148227e-02	7.139885e-03	-6.552220e-03	-1.704510e-02	-2.064089e-02	-2.645024e-02	-5.701995e-02	-1.277843e-01	-2.386775e-01	-3.743185e-01	-5.139672e-01	-6.406704e-01	-7.436635e-01	-8.170401e-01	-8.595539e-01	-8.755234e-01	-8.733371e-01	-8.618434e-01	-8.476825e-01	-8.344381e-01	-8.229991e-01	-8.127192e-01	-8.026692e-01	-7.925111e-01	-7.837316e-01	-7.772880e-01	-7.724570e-01	-7.685119e-01	-7.653296e-01	-7.626037e-01	-7.604074e-01	-7.592258e-01	-7.603143e-01	-7.642957e-01	-7.692648e-01	-8.180379e-01	-9.857393e-01	-9.765521e-01	-8.267274e-01	-7.817345e-01	-7.810559e-01	-7.851837e-01	-7.929669e-01	-8.030755e-01	-8.156406e-01	-8.306860e-01	-8.483918e-01	-8.689797e-01	-8.925063e-01	-9.179858e-01	-9.433049e-01	-9.674033e-01	-9.912975e-01	-1.015942e+00	-1.038380e+00	-1.051982e+00	-1.046676e+00	-1.012674e+00	-9.430930e-01	-8.361566e-01	-6.973405e-01	-5.371033e-01	-3.669042e-01	-2.003108e-01	-5.603060e-02	4.521827e-02	9.192466e-02	9.241952e-02	7.233047e-02	5.860525e-02	6.741556e-02	8.506539e-02	1.018263e-01	1.139452e-01	1.187801e-01	1.178282e-01	1.086771e-01	9.036156e-02	7.136118e-02	5.762037e-02	4.855162e-02	4.197093e-02	3.576732e-02	2.825388e-02	2.130426e-02	1.495186e-02	8.573895e-03	1.725390e-03	1.608467e-04	2.503001e-03	4.739753e-03	6.330952e-03	7.465465e-03	8.640307e-03	1.063121e-02	1.543776e-02	2.301297e-02	3.163024e-02	3.826825e-02	4.065350e-02	3.662489e-02	2.703915e-02	1.449524e-02	4.689319e-04	-1.270389e-02	-2.289874e-02	-2.768885e-02	-3.799458e-02	-7.552762e-02	-1.530848e-01	-2.675803e-01	-4.021084e-01	-5.363364e-01	-6.546798e-01	-7.478486e-01	-8.114767e-01	-8.460239e-01	-8.571147e-01	-8.534051e-01	-8.430468e-01	-8.315073e-01	-8.211810e-01	-8.120832e-01	-8.032808e-01	-7.941584e-01	-7.850641e-01	-7.778050e-01	-7.729421e-01	-7.691122e-01	-7.658257e-01	-7.628903e-01	-7.604334e-01	-7.588587e-01	-7.593291e-01	-7.613266e-01	-7.646850e-01	-7.703826e-01	-8.199857e-01	-9.891892e-01	-9.775468e-01	-8.311738e-01	-7.872172e-01	-7.879728e-01	-7.938527e-01	-8.039261e-01	-8.164492e-01	-8.317433e-01	-8.497944e-01	-8.708352e-01	-8.951624e-01	-9.226759e-01	-9.520508e-01	-9.810139e-01	-1.008218e+00	-1.034017e+00	-1.058245e+00	-1.076660e+00	-1.081214e+00	-1.061898e+00	-1.010602e+00	-9.230786e-01	-8.001827e-01	-6.493784e-01	-4.817234e-01	-3.084489e-01	-1.432750e-01	-5.326777e-03	8.543945e-02	1.204229e-01	1.119317e-01	8.810604e-02	7.536529e-02	8.715129e-02	1.060807e-01	1.226446e-01	1.336862e-01	1.369265e-01	1.344037e-01	1.231878e-01	1.019303e-01	8.027580e-02	6.400062e-02	5.300599e-02	4.506421e-02	3.730087e-02	2.903629e-02	2.193354e-02	1.561804e-02	9.489908e-03	2.417406e-03	2.095747e-04	2.233993e-03	4.166047e-03	5.520432e-03	6.537137e-03	7.754865e-03	9.935887e-03	1.467341e-02	2.167731e-02	2.923482e-02	3.462683e-02	3.584110e-02	3.091792e-02	2.081570e-02	8.198652e-03	-5.471237e-03	-1.819342e-02	-2.828107e-02	-3.463124e-02	-4.970339e-02	-9.407104e-02	-1.777685e-01	-2.948772e-01	-4.273342e-01	-5.555004e-01	-6.652744e-01	-7.488761e-01	-8.034857e-01	-8.311391e-01	-8.384859e-01	-8.341809e-01	-8.255550e-01	-8.169058e-01	-8.095037e-01	-8.026119e-01	-7.951611e-01	-7.869791e-01	-7.790469e-01	-7.734171e-01	-7.698076e-01	-7.666544e-01	-7.635320e-01	-7.607963e-01	-7.589093e-01	-7.589524e-01	-7.603399e-01	-7.619171e-01	-7.655298e-01	-7.724929e-01	-8.229960e-01	-9.932387e-01	-9.791581e-01	-8.369332e-01	-7.945632e-01	-7.967794e-01	-8.048792e-01	-8.174938e-01	-8.327985e-01	-8.511561e-01	-8.725936e-01	-8.974699e-01	-9.260513e-01	-9.579959e-01	-9.917126e-01	-1.024602e+00	-1.054651e+00	-1.080987e+00	-1.102265e+00	-1.113088e+00	-1.104404e+00	-1.067176e+00	-9.959776e-01	-8.897159e-01	-7.517596e-01	-5.909481e-01	-4.182215e-01	-2.441671e-01	-8.258709e-02	4.709585e-02	1.260570e-01	1.489931e-01	1.322002e-01	1.058947e-01	9.529484e-02	1.106081e-01	1.307528e-01	1.469286e-01	1.568261e-01	1.584177e-01	1.540258e-01	1.397605e-01	1.140901e-01	8.814315e-02	6.802672e-02	5.492676e-02	4.591951e-02	3.704677e-02	2.851041e-02	2.171410e-02	1.576848e-02	1.026432e-02	3.208349e-03	2.655973e-04	2.012207e-03	3.692791e-03	4.873281e-03	5.823106e-03	7.085601e-03	9.360557e-03	1.392384e-02	2.030573e-02	2.687718e-02	3.115563e-02	3.132521e-02	2.562092e-02	1.511675e-02	2.519436e-03	-1.078905e-02	-2.315343e-02	-3.333773e-02	-4.160079e-02	-6.166430e-02	-1.126776e-01	-2.018249e-01	-3.205773e-01	-4.500868e-01	-5.716657e-01	-6.727767e-01	-7.471610e-01	-7.935133e-01	-8.152885e-01	-8.198934e-01	-8.157721e-01	-8.093544e-01	-8.037799e-01	-7.992448e-01	-7.943807e-01	-7.881638e-01	-7.809385e-01	-7.743752e-01	-7.702993e-01	-7.676414e-01	-7.645950e-01	-7.615418e-01	-7.593043e-01	-7.590051e-01	-7.599656e-01	-7.609306e-01	-7.629719e-01	-7.674641e-01	-7.756460e-01	-8.271886e-01	-9.975672e-01	-9.813890e-01	-8.444283e-01	-8.039071e-01	-8.080062e-01	-8.185503e-01	-8.340884e-01	-8.525065e-01	-8.743033e-01	-8.996174e-01	-9.288385e-01	-9.621179e-01	-9.989353e-01	-1.037307e+00	-1.074056e+00	-1.105866e+00	-1.130090e+00	-1.144548e+00	-1.143062e+00	-1.116409e+00	-1.057626e+00	-9.647914e-01	-8.401761e-01	-6.891879e-01	-5.212298e-01	-3.463493e-01	-1.741729e-01	-1.856009e-02	1.008893e-01	1.668826e-01	1.777521e-01	1.536636e-01	1.263567e-01	1.190640e-01	1.383152e-01	1.595627e-01	1.752525e-01	1.840188e-01	1.837394e-01	1.765536e-01	1.572711e-01	1.250763e-01	9.308738e-02	6.842150e-02	5.370412e-02	4.427670e-02	3.496752e-02	2.667031e-02	2.060918e-02	1.533868e-02	1.081026e-02	4.046648e-03	3.274855e-04	1.829420e-03	3.299436e-03	4.350202e-03	5.258318e-03	6.544968e-03	8.826465e-03	1.314228e-02	1.889900e-02	2.457614e-02	2.785996e-02	2.709153e-02	2.070098e-02	9.888218e-03	-2.627022e-03	-1.559903e-02	-2.771587e-02	-3.820649e-02	-4.871984e-02	-7.395692e-02	-1.313719e-01	-2.252468e-01	-3.446996e-01	-4.704696e-01	-5.850435e-01	-6.774991e-01	-7.430851e-01	-7.819535e-01	-7.988024e-01	-8.015603e-01	-7.982994e-01	-7.944993e-01	-7.921321e-01	-7.903537e-01	-7.872948e-01	-7.821584e-01	-7.759805e-01	-7.709048e-01	-7.682861e-01	-7.659642e-01	-7.627532e-01	-7.600428e-01	-7.593831e-01	-7.600121e-01	-7.605629e-01	-7.619820e-01	-7.649465e-01	-7.703809e-01	-7.800847e-01	-8.328269e-01	-1.003170e+00	-9.839779e-01	-8.539544e-01	-8.157542e-01	-8.219412e-01	-8.352928e-01	-8.540947e-01	-8.760001e-01	-9.017159e-01	-9.314020e-01	-9.653884e-01	-1.003788e+00	-1.045774e+00	-1.088791e+00	-1.128588e+00	-1.159741e+00	-1.177614e+00	-1.179921e+00	-1.160462e+00	-1.111031e+00	-1.027831e+00	-9.129446e-01	-7.717604e-01	-6.109859e-01	-4.396082e-01	-2.660330e-01	-9.870507e-02	4.840679e-02	1.556934e-01	2.078033e-01	2.069273e-01	1.768650e-01	1.501824e-01	1.472393e-01	1.706566e-01	1.929285e-01	2.081406e-01	2.156466e-01	2.127526e-01	2.008270e-01	1.735376e-01	1.325196e-01	9.332942e-02	6.451348e-02	4.934313e-02	4.035072e-02	3.133368e-02	2.371618e-02	1.870453e-02	1.433855e-02	1.105495e-02	4.862455e-03	3.945514e-04	1.679015e-03	2.968782e-03	3.917667e-03	4.791928e-03	6.073255e-03	8.292608e-03	1.231804e-02	1.747635e-02	2.235052e-02	2.473924e-02	2.311861e-02	1.611891e-02	5.068724e-03	-7.330369e-03	-2.001535e-02	-3.200167e-02	-4.301035e-02	-5.609754e-02	-8.665310e-02	-1.501758e-01	-2.480298e-01	-3.672730e-01	-4.885961e-01	-5.958486e-01	-6.797427e-01	-7.370032e-01	-7.691586e-01	-7.819771e-01	-7.837073e-01	-7.819357e-01	-7.811401e-01	-7.820789e-01	-7.828804e-01	-7.813241e-01	-7.771132e-01	-7.720490e-01	-7.685853e-01	-7.669823e-01	-7.644351e-01	-7.611531e-01	-7.600628e-01	-7.603741e-01	-7.606049e-01	-7.616212e-01	-7.640043e-01	-7.678826e-01	-7.745688e-01	-7.860221e-01	-8.400525e-01	-1.009409e+00	-9.873042e-01	-8.658828e-01	-8.304159e-01	-8.390283e-01	-8.554939e-01	-8.779408e-01	-9.038160e-01	-9.339265e-01	-9.683780e-01	-1.007515e+00	-1.051289e+00	-1.098393e+00	-1.145341e+00	-1.186080e+00	-1.212418e+00	-1.218018e+00	-1.201611e+00	-1.158180e+00	-1.081710e+00	-9.725754e-01	-8.368418e-01	-6.823254e-01	-5.161003e-01	-3.457685e-01	-1.774004e-01	-1.814321e-02	1.178484e-01	2.111573e-01	2.487836e-01	2.368879e-01	2.024796e-01	1.780359e-01	1.801838e-01	2.078575e-01	2.311455e-01	2.457675e-01	2.513208e-01	2.441371e-01	2.243919e-01	1.855359e-01	1.340062e-01	8.776831e-02	5.650623e-02	4.248887e-02	3.477308e-02	2.665466e-02	2.000960e-02	1.619582e-02	1.285280e-02	1.095402e-02	5.579647e-03	4.667533e-04	1.555975e-03	2.686800e-03	3.549253e-03	4.387140e-03	5.633775e-03	7.743341e-03	1.146018e-02	1.606159e-02	2.021321e-02	2.178480e-02	1.937913e-02	1.183038e-02	5.949602e-04	-1.167912e-02	-2.414197e-02	-3.611572e-02	-4.785467e-02	-6.383218e-02	-9.981952e-02	-1.691093e-01	-2.701730e-01	-3.883352e-01	-5.045906e-01	-6.042982e-01	-6.798003e-01	-7.292479e-01	-7.554571e-01	-7.651007e-01	-7.665931e-01	-7.669471e-01	-7.695564e-01	-7.738560e-01	-7.769392e-01	-7.764821e-01	-7.730017e-01	-7.691576e-01	-7.671736e-01	-7.659455e-01	-7.626935e-01	-7.610205e-01	-7.610788e-01	-7.609785e-01	-7.616670e-01	-7.636290e-01	-7.669876e-01	-7.720621e-01	-7.802026e-01	-7.935933e-01	-8.491186e-01	-1.016970e+00	-9.912029e-01	-8.805373e-01	-8.483585e-01	-8.596618e-01	-8.795828e-01	-9.061303e-01	-9.364841e-01	-9.713560e-01	-1.010921e+00	-1.055408e+00	-1.104431e+00	-1.155875e+00	-1.204778e+00	-1.242562e+00	-1.258047e+00	-1.244065e+00	-1.201936e+00	-1.128980e+00	-1.022662e+00	-8.878640e-01	-7.341193e-01	-5.707205e-01	-4.041796e-01	-2.398420e-01	-8.084997e-02	6.697527e-02	1.892328e-01	2.669552e-01	2.898562e-01	2.680407e-01	2.311367e-01	2.103827e-01	2.180742e-01	2.499588e-01	2.741228e-01	2.874565e-01	2.892917e-01	2.750441e-01	2.436496e-01	1.900716e-01	1.278164e-01	7.641182e-02	4.547365e-02	3.424523e-02	2.841158e-02	2.154671e-02	1.599028e-02	1.334804e-02	1.102863e-02	1.049994e-02	6.125534e-03	5.440183e-04	1.456375e-03	2.442869e-03	3.225326e-03	4.019306e-03	5.206685e-03	7.177904e-03	1.058543e-02	1.467530e-02	1.816878e-02	1.898139e-02	1.584177e-02	7.791074e-03	-3.594070e-03	-1.575303e-02	-2.806764e-02	-4.014204e-02	-5.283068e-02	-7.201630e-02	-1.135219e-01	-1.881925e-01	-2.916796e-01	-4.079351e-01	-5.185879e-01	-6.106157e-01	-6.779604e-01	-7.201429e-01	-7.411721e-01	-7.484895e-01	-7.505623e-01	-7.537475e-01	-7.601909e-01	-7.677992e-01	-7.726515e-01	-7.727243e-01	-7.697910e-01	-7.671617e-01	-7.663049e-01	-7.642209e-01	-7.622381e-01	-7.622063e-01	-7.617606e-01	-7.620870e-01	-7.636703e-01	-7.665920e-01	-7.711953e-01	-7.776597e-01	-7.874035e-01	-8.031162e-01	-8.602244e-01	-1.025792e+00	-9.957461e-01	-8.983531e-01	-8.699895e-01	-8.842739e-01	-9.081737e-01	-9.391907e-01	-9.744105e-01	-1.014366e+00	-1.059197e+00	-1.108832e+00	-1.162202e+00	-1.215931e+00	-1.263012e+00	-1.291919e+00	-1.288932e+00	-1.247619e+00	-1.173241e+00	-1.066931e+00	-9.301248e-01	-7.719156e-01	-6.043610e-01	-4.372576e-01	-2.758393e-01	-1.225489e-01	2.285483e-02	1.559077e-01	2.619606e-01	3.228138e-01	3.311818e-01	3.008946e-01	2.633667e-01	2.474370e-01	2.608353e-01	2.966751e-01	3.209225e-01	3.310906e-01	3.261405e-01	3.012493e-01	2.545816e-01	1.847203e-01	1.135562e-01	6.047153e-02	3.306776e-02	2.586564e-02	2.213501e-02	1.658946e-02	1.207897e-02	1.044351e-02	9.043589e-03	9.726468e-03	6.444949e-03	6.264735e-04	1.377267e-03	2.229029e-03	2.932227e-03	3.673147e-03	4.783319e-03	6.602536e-03	9.710791e-03	1.333115e-02	1.621444e-02	1.630934e-02	1.247491e-02	3.958758e-03	-7.552981e-03	-1.962154e-02	-3.186275e-02	-4.414744e-02	-5.802169e-02	-8.074437e-02	-1.278287e-01	-2.074469e-01	-3.125592e-01	-4.261341e-01	-5.307374e-01	-6.150335e-01	-6.745178e-01	-7.100175e-01	-7.266534e-01	-7.325353e-01	-7.361173e-01	-7.429687e-01	-7.536713e-01	-7.642748e-01	-7.699971e-01	-7.698483e-01	-7.672220e-01	-7.658121e-01	-7.646418e-01	-7.634567e-01	-7.636467e-01	-7.631740e-01	-7.629991e-01	-7.641300e-01	-7.666246e-01	-7.707577e-01	-7.768087e-01	-7.848005e-01	-7.964971e-01	-8.147803e-01	-8.736640e-01	-1.036001e+00	-1.000986e+00	-9.196942e-01	-8.957277e-01	-9.134452e-01	-9.418055e-01	-9.775501e-01	-1.017944e+00	-1.063102e+00	-1.112940e+00	-1.166710e+00	-1.222213e+00	-1.274358e+00	-1.313723e+00	-1.326064e+00	-1.296391e+00	-1.220678e+00	-1.109542e+00	-9.687370e-01	-8.033162e-01	-6.257909e-01	-4.495180e-01	-2.839702e-01	-1.328444e-01	4.683509e-03	1.325614e-01	2.477213e-01	3.353906e-01	3.785232e-01	3.730057e-01	3.359376e-01	2.994816e-01	2.891410e-01	3.082324e-01	3.470436e-01	3.692251e-01	3.728643e-01	3.570625e-01	3.179946e-01	2.538622e-01	1.686742e-01	9.241357e-02	4.206005e-02	2.106773e-02	1.842754e-02	1.661481e-02	1.221298e-02	8.600819e-03	7.729084e-03	7.076184e-03	8.699690e-03	6.507827e-03	7.140441e-04	1.316357e-03	2.039685e-03	2.660937e-03	3.340104e-03	4.361516e-03	6.025436e-03	8.849546e-03	1.203555e-02	1.434185e-02	1.374768e-02	9.248414e-03	2.962610e-04	-1.132967e-02	-2.334190e-02	-3.558124e-02	-4.818624e-02	-6.351285e-02	-9.012010e-02	-1.428149e-01	-2.268974e-01	-3.328306e-01	-4.430117e-01	-5.412077e-01	-6.178043e-01	-6.697870e-01	-6.992334e-01	-7.123185e-01	-7.177845e-01	-7.240221e-01	-7.355481e-01	-7.507789e-01	-7.634704e-01	-7.685673e-01	-7.671613e-01	-7.649344e-01	-7.636563e-01	-7.638023e-01	-7.651809e-01	-7.649835e-01	-7.647445e-01	-7.651616e-01	-7.671184e-01	-7.707585e-01	-7.763111e-01	-7.839444e-01	-7.937836e-01	-8.076496e-01	-8.289315e-01	-8.897884e-01	-1.047576e+00	-1.006761e+00	-9.448740e-01	-9.261540e-01	-9.477206e-01	-9.808062e-01	-1.021548e+00	-1.067215e+00	-1.117279e+00	-1.171032e+00	-1.226577e+00	-1.280167e+00	-1.324721e+00	-1.348584e+00	-1.335902e+00	-1.271901e+00	-1.157087e+00	-1.007945e+00	-8.345435e-01	-6.447678e-01	-4.533601e-01	-2.738197e-01	-1.146476e-01	2.178970e-02	1.396846e-01	2.467014e-01	3.413069e-01	4.088684e-01	4.339500e-01	4.156140e-01	3.735069e-01	3.395068e-01	3.352258e-01	3.595101e-01	3.989273e-01	4.151055e-01	4.076529e-01	3.768980e-01	3.213010e-01	2.399427e-01	1.431392e-01	6.690331e-02	2.363055e-02	1.092981e-02	1.261170e-02	1.221681e-02	8.648123e-03	5.744138e-03	5.381376e-03	5.272633e-03	7.510334e-03	6.313826e-03	8.067723e-04	1.271892e-03	1.870865e-03	2.405898e-03	3.015945e-03	3.942342e-03	5.453858e-03	8.010127e-03	1.078881e-02	1.253982e-02	1.127591e-02	6.135528e-03	-3.229074e-03	-1.496474e-02	-2.696037e-02	-3.926279e-02	-5.230938e-02	-6.940105e-02	-1.002635e-01	-1.585635e-01	-2.465739e-01	-3.525272e-01	-4.586718e-01	-5.501989e-01	-6.192155e-01	-6.641272e-01	-6.882218e-01	-6.987290e-01	-7.050614e-01	-7.154635e-01	-7.327985e-01	-7.522272e-01	-7.649337e-01	-7.669020e-01	-7.636827e-01	-7.611924e-01	-7.627871e-01	-7.664146e-01	-7.666727e-01	-7.670429e-01	-7.671777e-01	-7.682543e-01	-7.712573e-01	-7.762553e-01	-7.833683e-01	-7.928894e-01	-8.047797e-01	-8.212039e-01	-8.459741e-01	-9.088176e-01	-1.060525e+00	-1.012883e+00	-9.743793e-01	-9.617780e-01	-9.874480e-01	-1.025504e+00	-1.071302e+00	-1.121916e+00	-1.175744e+00	-1.230952e+00	-1.284076e+00	-1.329578e+00	-1.358603e+00	-1.358301e+00	-1.312460e+00	-1.208904e+00	-1.054068e+00	-8.693271e-01	-6.680115e-01	-4.599001e-01	-2.606784e-01	-8.316224e-02	6.548874e-02	1.840147e-01	2.795385e-01	3.633236e-01	4.353901e-01	4.817457e-01	4.890264e-01	4.592334e-01	4.136738e-01	3.832134e-01	3.851869e-01	4.130584e-01	4.487206e-01	4.533600e-01	4.301382e-01	